       32000
Lattice=" 78.409400 .000000 .000000 .000000 78.409400 .000000 .000000 .000000 78.409400 " properties=species:I:1:pos:R:3:forces:R:3:id:I:1 energy=-184630.666268203
 1   40.184805507 30.384310955 42.143982273    -.000007738 .000000079 .000002932    1
 1   42.144982608 30.384223831 40.183585432    -.000009393 -.000000427 .000006173    2
 1   40.184693677 30.384361370 46.064831657    -.000008944 -.000000164 -.000001738    3
 1   42.144806258 30.384206725 44.104399360    -.000008828 -.000000762 -.000000201    4
 1   40.184624994 30.384499223 49.985738389    -.000011934 -.000000038 -.000005060    5
 1   42.144705418 30.384304841 48.025308947    -.000010775 -.000000885 -.000005237    6
 1   40.184591567 30.384693422 53.906660627    -.000014943 .000000836 -.000006311    7
 1   42.144663855 30.384477764 51.946249131    -.000013502 -.000000378 -.000007522    8
 1   40.184591625 30.384928629 57.827579782    -.000016430 .000002295 -.000006149    9
 1   42.144671775 30.384701981 55.867184717    -.000015314 .000001009 -.000007229    10
 1   40.184627868 30.385200465 61.748486360    -.000016208 .000004073 -.000005561    11
 1   42.144727498 30.384969850 59.788100532    -.000015350 .000003130 -.000005804    12
 1   40.184703406 30.385506007 65.669367439    -.000015293 .000005264 -.000005155    13
 1   42.144832476 30.385278840 63.708985560    -.000013846 .000005455 -.000004423    14
 1   40.184818987 30.385835501 69.590200908    -.000014134 .000005792 -.000005089    15
 1   42.144986615 30.385620996 67.629823446    -.000011849 .000007255 -.000003846    16
 1   40.184973708 30.386169675 73.510954837    -.000012691 .000006521 -.000005193    17
 1   42.145188046 30.385978982 71.550589640    -.000009971 .000008156 -.000003941    18
 1   40.185165128 30.386480642 77.431590795    -.000012121 .000006992 -.000005467    19
 1   42.145433963 30.386326927 75.471253180    -.000008052 .000009714 -.000004683    20
 1   40.185385228 30.386732983 2.942670462    -.000012198 .000006846 -.000005569    21
 1   42.145717105 30.386632922 .982382095    -.000007634 .000010127 -.000005663    22
 1   40.185614706 30.386887198 6.862964835    -.000013745 .000006271 -.000005062    23
 1   42.146017607 30.386859144 4.902750867    -.000007682 .000010024 -.000006498    24
 1   40.185819074 30.386905289 10.783064588    -.000016008 .000004993 -.000003527    25
 1   42.146297994 30.386965522 8.822947347    -.000009782 .000008767 -.000006356    26
 1   40.185954957 30.386759999 14.702989470    -.000018948 .000003971 -.000000503    27
 1   42.146505659 30.386915380 12.742977592    -.000012880 .000006931 -.000004668    28
 1   40.185984479 30.386448899 18.622794592    -.000021095 .000002448 .000004088    29
 1   42.146587867 30.386687862 16.662869930    -.000017265 .000004590 -.000000537    30
 1   40.185893215 30.386004795 22.542569235    -.000022196 .000000117 .000009269    31
 1   42.146512121 30.386292194 20.582681064    -.000020660 .000001997 .000005455    32
 1   40.185699181 30.385494842 26.462422387    -.000021244 -.000001127 .000013144    33
 1   42.146284551 30.385778090 24.502497740    -.000022844 -.000001271 .000011698    34
 1   40.185447165 30.385006664 30.382455773    -.000017905 -.000001109 .000013894    35
 1   42.145951408 30.385229756 28.422425006    -.000022290 -.000002727 .000015965    36
 1   40.185190510 30.384621520 34.302732642    -.000013315 -.000000524 .000011543    37
 1   42.145582443 30.384743953 32.342558647    -.000018313 -.000002141 .000015872    38
 1   40.184970542 30.384387977 38.223257742    -.000009381 .000000085 .000007587    39
 1   42.145245164 30.384397871 36.262949899    -.000013069 -.000000955 .000011979    40
 1   40.184602882 32.344483791 40.183445070    -.000008772 .000001427 .000005498    41
 1   40.184279963 34.304693169 42.143738770    -.000009164 .000002890 .000003545    42
 1   42.144490130 32.344296369 42.143798391    -.000009259 .000000874 .000003177    43
 1   42.144264533 34.304525553 40.183179628    -.000010578 .000001768 .000006679    44
 1   40.184455266 32.344465937 44.104299271    -.000008628 .000001634 .000000682    45
 1   40.184168776 34.304738283 46.064693513    -.000009751 .000003767 -.000000568    46
 1   42.144340734 32.344323003 46.064735136    -.000009908 .000000851 -.000002429    47
 1   42.144059150 34.304472869 44.104111692    -.000009800 .000002556 .000000953    48
 1   40.184364551 32.344556672 48.025235314    -.000010412 .000002015 -.000003155    49
 1   40.184109116 34.304869464 49.985681838    -.000010541 .000005120 -.000002999    50
 1   42.144266471 32.344445516 49.985724570    -.000011672 .000001303 -.000005786    51
 1   42.143954547 34.304548923 48.025141600    -.000010354 .000003291 -.000003054    52
 1   40.184314569 32.344712727 51.946188550    -.000012466 .000003023 -.000005043    53
 1   40.184081991 34.305040412 53.906650863    -.000010136 .000006781 -.000004015    54
 1   42.144247461 32.344623639 53.906707985    -.000012667 .000002559 -.000006401    55
 1   42.143914055 34.304697980 51.946177835    -.000010227 .000004351 -.000004708    56
 1   40.184298095 32.344905121 55.867128846    -.000013226 .000004697 -.000005446    57
 1   40.184083086 34.305224698 57.827586044    -.000009069 .000008223 -.000004754    58
 1   42.144278638 32.344839295 57.827662470    -.000011824 .000004872 -.000005490    59
 1   42.143918930 34.304880026 55.867176132    -.000008396 .000005855 -.000004770    60
 1   40.184317591 32.345123877 59.788049038    -.000012829 .000006720 -.000005471    61
 1   40.184118928 34.305417570 61.748491872    -.000008818 .000009179 -.000005364    62
 1   42.144365825 32.345091900 61.748582059    -.000010037 .000007595 -.000004403    63
 1   42.143971213 34.305082433 59.788128703    -.000006059 .000007625 -.000004347    64
 1   40.184380070 32.345370447 63.708946199    -.000012585 .000008339 -.000005360    65
 1   40.184200451 34.305626109 65.669371097    -.000007718 .000010583 -.000005200    66
 1   42.144516136 32.345383963 65.669458872    -.000008848 .000010062 -.000003635    67
 1   42.144083670 34.305310861 63.709038549    -.000004744 .000009431 -.000003589    68
 1   40.184491465 32.345646273 67.629808697    -.000011944 .000009604 -.000005153    69
 1   40.184339042 34.305857745 69.590211431    -.000005790 .000012181 -.000005167    70
 1   42.144731607 32.345709342 69.590274242    -.000007029 .000012574 -.000003419    71
 1   42.144269460 34.305573305 67.629899396    -.000002102 .000012232 -.000002987    72
 1   40.184654389 32.345944476 71.550611027    -.000009803 .000010905 -.000005194    73
 1   40.184541304 34.306109787 73.510980955    -.000004672 .000012485 -.000005440    74
 1   42.145009958 32.346050276 73.510998164    -.000004083 .000014833 -.000003834    75
 1   42.144536592 34.305867885 71.550687685    .000001055 .000015113 -.000003083    76
 1   40.184867842 32.346246606 75.471314845    -.000008596 .000011204 -.000005481    77
 1   40.184805193 34.306364969 77.431632338    -.000003245 .000012843 -.000005816    78
 1   42.145343729 32.346378802 77.431594197    -.000002472 .000016205 -.000004984    79
 1   42.144883720 34.306177803 75.471365284    .000003171 .000016750 -.000004077    80
 1   40.185123831 32.346523163 .982475288    -.000007916 .000011819 -.000005807    81
 1   40.185117041 34.306595145 2.942713116    -.000003469 .000012503 -.000005976    82
 1   42.145713262 32.346659723 2.942628325    -.000001813 .000016927 -.000006303    83
 1   42.145296222 34.306473627 .982488915    .000005383 .000018246 -.000005565    84
 1   40.185403730 32.346738055 4.902851373    -.000008800 .000010857 -.000005800    85
 1   40.185444281 34.306765140 6.862980630    -.000004177 .000011961 -.000005760    86
 1   42.146080558 32.346854747 6.862879084    -.000003203 .000015152 -.000007071    87
 1   42.145739761 34.306719735 4.902823422    .000004603 .000017418 -.000006900    88
 1   40.185672409 32.346852220 8.823018794    -.000010770 .000009713 -.000004979    89
 1   40.185733428 34.306838496 10.783018499    -.000006309 .000010675 -.000004729    90
 1   42.146387099 32.346925037 10.782944678    -.000006061 .000013072 -.000006485    91
 1   42.146154136 34.306878627 8.822953786    .000002967 .000015773 -.000007567    92
 1   40.185879455 32.346831045 12.742982171    -.000013679 .000007690 -.000002889    93
 1   40.185917973 34.306784542 14.702850291    -.000008841 .000008769 -.000002226    94
 1   42.146564622 32.346839231 14.702846323    -.000009926 .000009279 -.000003857    95
 1   42.146458613 34.306914744 12.742890796    -.000000544 .000012740 -.000006431    96
 1   40.185972390 32.346653726 16.662783963    -.000016438 .000005774 .000000776    97
 1   40.185942427 34.306588046 18.622545987    -.000012622 .000005039 .000002183    98
 1   42.146558506 32.346582963 18.622631836    -.000014023 .000005787 .000001123    99
 1   42.146572679 34.306800229 16.662673635    -.000004423 .000009289 -.000003116    100
 1   40.185918683 32.346326057 20.582506482    -.000018856 .000002174 .000006038    101
 1   40.185787655 34.306258794 22.542216769    -.000015897 .000000825 .000007805    102
 1   42.146353669 32.346173311 22.542379524    -.000018067 .000000858 .000007596    103
 1   42.146449819 34.306525840 20.582371795    -.000009939 .000004289 .000002562    104
 1   40.185723263 32.345886642 24.502262575    -.000019843 -.000000702 .000011066    105
 1   40.185486037 34.305838632 26.461995277    -.000017125 -.000001053 .000012201    106
 1   42.145987126 32.345664970 26.462194833    -.000020481 -.000003108 .000013533    107
 1   42.146102170 34.306112773 24.502085669    -.000015054 -.000001387 .000009249    108
 1   40.185431143 32.345405418 28.422171654    -.000018686 -.000001380 .000013758    109
 1   40.185112741 34.305399526 30.382001888    -.000016101 -.000000895 .000013526    110
 1   42.145538246 32.345143444 30.382191321    -.000019581 -.000003298 .000016124    111
 1   42.145604611 34.305618656 28.421937254    -.000017671 -.000003422 .000014186    112
 1   40.185110075 32.344968095 32.342326142    -.000015392 -.000000684 .000013021    113
 1   40.184753642 34.305025196 34.302307266    -.000013370 .000000424 .000011845    114
 1   42.145099028 32.344703197 34.302454665    -.000015662 -.000001364 .000014280    115
 1   42.145069678 34.305132281 32.342040847    -.000016937 -.000002074 .000015174    116
 1   40.184822355 32.344648549 36.262761125    -.000011419 .000000646 .000009854    117
 1   40.184469753 34.304781701 38.222909265    -.000010392 .000001945 .000008143    118
 1   42.144739991 32.344414043 38.223006937    -.000011354 .000000398 .000009334    119
 1   42.144602871 34.304747448 36.262460263    -.000013562 .000000199 .000012133    120
 1   40.184174724 36.265030390 40.183178805    -.000010325 .000003066 .000006490    121
 1   40.183975611 38.225393934 42.143559417    -.000010747 .000004453 .000005499    122
 1   42.143874612 36.264750786 42.143470649    -.000010557 .000003214 .000004736    123
 1   42.143787972 38.225152379 40.182857807    -.000011959 .000002646 .000008406    124
 1   40.184041606 36.265022421 44.104126394    -.000009931 .000004613 .000002401    125
 1   40.183917000 38.225464163 46.064584910    -.000009661 .000006971 .000002667    126
 1   42.143742357 36.264771991 46.064514101    -.000009916 .000004808 .000000434    127
 1   42.143621582 38.225101209 44.103870844    -.000010321 .000005210 .000004248    128
 1   40.183981104 36.265129743 48.025143406    -.000009629 .000006547 -.000000380    129
 1   40.183911696 38.225625070 49.985621455    -.000007041 .000009676 .000000866    130
 1   42.143695445 36.264901141 49.985598878    -.000008641 .000006301 -.000001982    131
 1   42.143580288 38.225200257 48.024983941    -.000008128 .000007741 .000001510    132
 1   40.183957797 36.265295917 51.946147243    -.000007958 .000008526 -.000001976    133
 1   40.183921569 38.225813332 53.906606411    -.000004346 .000010523 -.000001778    134
 1   42.143691676 36.265075224 53.906646600    -.000005861 .000007069 -.000003404    135
 1   42.143593459 38.225379101 51.946080982    -.000004420 .000008883 -.000000854    136
 1   40.183953392 36.265472835 55.867103667    -.000006174 .000009342 -.000003689    137
 1   40.183930921 38.225981158 57.827527661    -.000003534 .000009069 -.000004696    138
 1   42.143717155 36.265255080 57.827633233    -.000003440 .000006975 -.000004270    139
 1   42.143619844 38.225568876 55.867106783    -.000001926 .000007311 -.000003682    140
 1   40.183966790 36.265637425 59.788015149    -.000005608 .000008963 -.000005258    141
 1   40.183943335 38.226110961 61.748404807    -.000000474 .000008166 -.000005739    142
 1   42.143780388 36.265433264 61.748567093    -.000001846 .000007126 -.000004023    143
 1   42.143651294 38.225732563 59.788060532    -.000000564 .000005171 -.000004893    144
 1   40.184008663 36.265790802 63.708897308    -.000003494 .000009494 -.000005471    145
 1   40.183977909 38.226212325 65.669262404    .000002027 .000007250 -.000006136    146
 1   42.143902233 36.265622826 65.669459360    .000002097 .000008828 -.000002940    147
 1   42.143705726 38.225870515 63.708966702    .000004188 .000004967 -.000004017    148
 1   40.184097244 36.265947668 67.629756626    -.000001137 .000010250 -.000005438    149
 1   40.184059123 38.226306394 69.590105949    .000002639 .000005875 -.000006207    150
 1   42.144107351 36.265840270 69.590302370    .000005273 .000010084 -.000002732    151
 1   42.143817701 38.226006130 67.629841467    .000006322 .000003551 -.000003679    152
 1   40.184250571 36.266121627 71.550576325    -.000000684 .000010048 -.000005611    153
 1   40.184212372 38.226412178 73.510910617    .000002645 .000004522 -.000006154    154
 1   42.144411100 36.266088507 73.511063483    .000007303 .000010581 -.000003357    155
 1   42.144022604 38.226163227 71.550670341    .000007633 .000001337 -.000003771    156
 1   40.184479512 36.266313984 75.471314719    .000000326 .000009918 -.000005866    157
 1   40.184456376 38.226536889 77.431621280    .000001774 .000003014 -.000005734    158
 1   42.144813333 36.266352532 77.431693349    .000009132 .000011451 -.000004425    159
 1   42.144345883 38.226350470 75.471407441    .000007200 -.000001273 -.000004098    160
 1   40.184783184 36.266511485 .982512820    .000000263 .000009051 -.000005778    161
 1   40.184790741 38.226672691 2.942764214    .000003000 .000003443 -.000004956    162
 1   42.145291870 36.266604624 2.942740967    .000009823 .000011415 -.000005707    163
 1   42.144790166 38.226557640 .982589072    .000008167 -.000001533 -.000004360    164
 1   40.185139777 36.266688843 4.902909597    .000001160 .000009854 -.000005594    165
 1   40.185182319 38.226799111 6.863069538    .000004952 .000005303 -.000004434    166
 1   42.145793114 36.266810304 6.862971532    .000009928 .000011761 -.000006786    167
 1   42.145323336 38.226761254 4.902955900    .000009154 -.000001038 -.000004607    168
 1   40.185499343 36.266813817 8.823062604    .000001013 .000010120 -.000005259    169
 1   40.185558172 38.226887064 10.783099748    .000007200 .000007803 -.000004159    170
 1   42.146230449 36.266934106 10.782979224    .000008518 .000011321 -.000007140    171
 1   42.145865083 38.226928154 8.823076057    .000012028 .000002672 -.000004940    172
 1   40.185786847 36.266852824 12.742968758    .000000095 .000010073 -.000004221    173
 1   40.185821536 38.226905330 14.702873488    .000006105 .000007930 -.000003101    174
 1   42.146500435 36.266942181 14.702791493    .000005968 .000010515 -.000005656    175
 1   42.146297792 38.227023771 12.742958460    .000013292 .000006219 -.000005263    176
 1   40.185923124 36.266778595 16.662677473    -.000003450 .000007396 -.000001252    177
 1   40.185884549 38.226825594 18.622473799    .000001364 .000005534 -.000000023    178
 1   42.146518400 36.266809017 18.622469067    .000000826 .000007400 -.000002103    179
 1   42.146499879 38.227014658 16.662652608    .000011203 .000007745 -.000004365    180
 1   40.185856449 36.266577310 20.582290997    -.000008636 .000003411 .000003721    181
 1   40.185709789 38.226632685 22.542038122    -.000004796 .000003326 .000004456    182
 1   42.146256578 36.266526991 22.542104926    -.000006525 .000001920 .000003845    183
 1   42.146392383 38.226873953 20.582243696    .000004718 .000005082 -.000001173    184
 1   40.185591252 36.266260311 24.501948748    -.000012886 .000000550 .000008894    185
 1   40.185337373 38.226340033 26.461729192    -.000010424 .000001453 .000008785    186
 1   42.145764998 36.266118906 26.461821521    -.000012227 -.000001694 .000009913    187
 1   42.145979430 38.226592440 24.501849876    -.000003428 .000001845 .000003828    188
 1   40.185195036 36.265872630 28.421795404    -.000014706 -.000000390 .000012185    189
 1   40.184874067 38.225996826 30.381691100    -.000013124 .000000379 .000011599    190
 1   42.145161789 36.265647859 30.381751933    -.000015085 -.000001871 .000013571    191
 1   42.145360250 38.226197287 28.421613039    -.000009883 .000000351 .000008983    192
 1   40.184771981 36.265488488 32.341938912    -.000014144 .000000096 .000012652    193
 1   40.184445758 38.225679202 34.302003653    -.000012949 .000000827 .000011826    194
 1   42.144587466 36.265208447 34.301999032    -.000014769 -.000000439 .000013640    195
 1   42.144696610 38.225761016 32.341666916    -.000013298 -.000000054 .000012398    196
 1   40.184416222 36.265188958 36.262415213    -.000012067 .000001490 .000010506    197
 1   40.184139929 38.225463517 38.222656532    -.000011650 .000002395 .000009295    198
 1   42.144146805 36.264892794 38.222592019    -.000012347 .000001476 .000010006    199
 1   42.144144306 38.225383759 36.262087770    -.000013577 .000000748 .000012228    200
 1   44.104999250 30.384090767 42.143979474    -.000009382 -.000000993 .000003371    201
 1   46.065293415 30.384031281 40.183587895    -.000010915 -.000001163 .000008764    202
 1   44.104847069 30.384146209 46.064880445    -.000009807 -.000001308 -.000003772    203
 1   46.065067953 30.384037829 44.104455273    -.000009224 -.000001301 -.000000423    204
 1   44.104787443 30.384303364 49.985842040    -.000011543 -.000001143 -.000007868    205
 1   46.064974977 30.384186098 48.025431805    -.000009615 -.000001376 -.000006766    206
 1   44.104799607 30.384525115 53.906803675    -.000013017 .000000032 -.000008243    207
 1   46.064986155 30.384419646 51.946426513    -.000010290 -.000000511 -.000008797    208
 1   44.104872019 30.384795534 57.827736250    -.000013342 .000001935 -.000006408    209
 1   46.065075374 30.384706172 55.867386176    -.000010531 .000000989 -.000007380    210
 1   44.105000370 30.385109675 61.748626440    -.000011834 .000004496 -.000004002    211
 1   46.065225846 30.385032425 59.788287805    -.000009482 .000003148 -.000004316    212
 1   44.105181965 30.385460456 65.669462177    -.000009012 .000007631 -.000002478    213
 1   46.065427974 30.385389474 63.709120813    -.000007014 .000006423 -.000001798    214
 1   44.105414502 30.385833393 69.590226087    -.000006600 .000009664 -.000002242    215
 1   46.065677987 30.385765625 67.629874476    -.000004143 .000009902 -.000000786    216
 1   44.105696111 30.386206269 73.510895179    -.000004464 .000011020 -.000003047    217
 1   46.065976864 30.386145155 71.550533925    -.000002217 .000012179 -.000001371    218
 1   44.106021728 30.386550963 77.431445339    -.000003000 .000012515 -.000004536    219
 1   46.066323780 30.386507161 75.471083020    -.000000998 .000012539 -.000002911    220
 1   44.106374319 30.386834364 2.942458434    -.000002538 .000012901 -.000006228    221
 1   46.066706292 30.386824685 .982112028    .000000379 .000014201 -.000004883    222
 1   44.106717047 30.387017479 6.862727118    -.000002298 .000012948 -.000007711    223
 1   46.067091205 30.387064623 4.902422651    .000001148 .000014448 -.000007054    224
 1   44.106994818 30.387059147 10.782854767    -.000004526 .000011420 -.000007855    225
 1   46.067424428 30.387185767 8.822624569    .000002089 .000015403 -.000008921    226
 1   44.107145569 30.386924271 14.702853317    -.000008272 .000008780 -.000005834    227
 1   46.067641239 30.387144833 12.742725956    .000000313 .000013634 -.000009241    228
 1   44.107121295 30.386599289 18.622747242    -.000013979 .000004702 -.000000456    229
 1   46.067683765 30.386907788 16.662729674    -.000003767 .000010310 -.000006840    230
 1   44.106908520 30.386107772 22.542587073    -.000019068 .000001203 .000007001    231
 1   46.067521800 30.386470624 20.582646986    -.000010647 .000004526 -.000000239    232
 1   44.106540342 30.385520672 26.462458114    -.000022050 -.000002672 .000014185    233
 1   46.067167552 30.385876854 24.502524331    -.000016789 .000000394 .000008634    234
 1   44.106088651 30.384941762 30.382468375    -.000021634 -.000003844 .000018449    235
 1   46.066679299 30.385224687 28.422456164    -.000020438 -.000003560 .000016728    236
 1   44.105639266 30.384475115 34.302712584    -.000017262 -.000002475 .000017093    237
 1   46.066146519 30.384638841 32.342562225    -.000019753 -.000004153 .000020434    238
 1   44.105263733 30.384188117 38.223228357    -.000012099 -.000001095 .000011206    239
 1   46.065661931 30.384225088 36.262934579    -.000015356 -.000002301 .000017116    240
 1   44.104633335 32.344170527 40.183305259    -.000010789 .000000358 .000007462    241
 1   44.104039710 34.304231542 42.143494590    -.000010237 .000001881 .000004490    242
 1   46.064552542 32.343962346 42.143683324    -.000009907 .000000489 .000004522    243
 1   46.064167646 34.304061047 40.182880299    -.000011438 .000001373 .000009421    244
 1   44.104391583 32.344115294 44.104212687    -.000009616 .000000448 .000000040    245
 1   44.103849545 34.304227581 46.064541995    -.000009807 .000002388 -.000001423    246
 1   46.064358560 32.343997302 46.064710449    -.000009220 .000000266 -.000002946    247
 1   46.063842263 34.303946321 44.103888675    -.000009267 .000002357 .000002146    248
 1   44.104271953 32.344198197 48.025233643    -.000010487 .000000360 -.000005353    249
 1   44.103774920 34.304343805 49.985653424    -.000010028 .000002653 -.000004811    250
 1   46.064303865 32.344158521 49.985807477    -.000009725 .000000254 -.000007066    251
 1   46.063700780 34.304016034 48.025058694    -.000009045 .000002093 -.000003337    252
 1   44.104241913 32.344364842 51.946272959    -.000011479 .000000995 -.000007271    253
 1   44.103776206 34.304522434 53.906739064    -.000008746 .000003403 -.000005486    254
 1   46.064351282 32.344391793 53.906881145    -.000009750 .000001315 -.000007295    255
 1   46.063687714 34.304192776 51.946247437    -.000008896 .000001740 -.000005908    256
 1   44.104281694 32.344583105 55.867278851    -.000010932 .000002807 -.000006344    257
 1   44.103840992 34.304737001 57.827763246    -.000004830 .000005531 -.000003979    258
 1   46.064480546 32.344675313 57.827887671    -.000007567 .000003646 -.000004562    259
 1   46.063765834 34.304426556 55.867370924    -.000005952 .000002992 -.000004819    260
 1   44.104388951 32.344846075 59.788233384    -.000008136 .000005842 -.000004036    261
 1   44.103978878 34.304989299 61.748721158    -.000000861 .000008435 -.000002013    262
 1   46.064686825 32.345006249 61.748812260    -.000002733 .000008141 -.000001204    263
 1   46.063929531 34.304707882 59.788401281    .000000337 .000006578 -.000001420    264
 1   44.104568960 32.345155936 63.709128880    -.000004704 .000009765 -.000002178    265
 1   44.104204032 34.305287901 65.669609305    .000002089 .000011822 -.000000656    266
 1   46.064968807 32.345379469 65.669645460    .000001550 .000013059 .000000461    267
 1   46.064189226 34.305044383 63.709331784    .000005713 .000011545 .000001199    268
 1   44.104823476 32.345507467 67.629952219    -.000002521 .000013365 -.000001502    269
 1   44.104523425 34.305629740 69.590411251    .000006410 .000016098 -.000000290    270
 1   46.065323679 32.345779134 69.590372841    .000003436 .000017231 .000000436    271
 1   46.064550199 34.305432527 67.630151261    .000009353 .000015726 .000002189    272
 1   44.105149028 32.345883036 71.550681347    -.000000109 .000016799 -.000001729    273
 1   44.104935610 34.305996558 73.511098065    .000010386 .000020629 -.000001059    274
 1   46.065746359 32.346181513 73.510975947    .000005006 .000020733 -.000000811    275
 1   46.065009286 34.305851295 71.550839698    .000013971 .000021717 .000001732    276
 1   44.105538532 32.346256018 75.471288884    .000003009 .000020012 -.000003087    277
 1   44.105427240 34.306358246 77.431636871    .000013482 .000023607 -.000003192    278
 1   46.066224144 32.346557890 77.431439804    .000006883 .000022938 -.000002991    279
 1   46.065555822 34.306270301 75.471374867    .000016920 .000025707 -.000000112    280
 1   44.105975322 32.346593595 .982350175    .000004237 .000021278 -.000005145    281
 1   44.105965073 34.306677866 2.942603492    .000015243 .000025062 -.000005958    282
 1   46.066725483 32.346875939 2.942362472    .000008095 .000024334 -.000005670    283
 1   46.066160727 34.306653216 .982344897    .000019924 .000029493 -.000003236    284
 1   44.106422487 32.346859041 4.902652400    .000005053 .000022100 -.000007344    285
 1   44.106488708 34.306917810 6.862792951    .000013971 .000023698 -.000008465    286
 1   46.067192297 32.347099421 6.862557355    .000009577 .000025688 -.000008205    287
 1   46.066767565 34.306963849 4.902558514    .000020573 .000029925 -.000006731    288
 1   44.106819814 32.347013628 8.822798185    .000003598 .000019811 -.000008709    289
 1   44.106912418 34.307041703 10.782819005    .000011463 .000020468 -.000009564    290
 1   46.067547425 32.347189357 10.782644527    .000009556 .000024038 -.000010062    291
 1   46.067290432 34.307165678 8.822642292    .000020512 .000029417 -.000009542    292
 1   44.107091652 32.347019598 12.742801908    .000000614 .000016766 -.000008334    293
 1   44.107142986 34.307015973 14.702705851    .000006705 .000015942 -.000008127    294
 1   46.067713681 32.347108375 14.702636526    .000006885 .000020560 -.000009883    295
 1   46.067632661 34.307224920 12.742623569    .000018230 .000025716 -.000011167    296
 1   44.107167882 32.346848844 16.662685659    -.000004479 .000011075 -.000004931    297
 1   44.107108581 34.306815549 18.622486051    .000000959 .000010731 -.000004010    298
 1   46.067636443 32.346830859 18.622537757    .000000586 .000013052 -.000005908    299
 1   46.067710951 34.307109519 16.662514283    .000013035 .000020115 -.000009899    300
 1   44.107009739 32.346493942 20.582487116    -.000010484 .000005886 .000001360    301
 1   44.106790967 34.306437613 22.542211999    -.000006319 .000004418 .000002468    302
 1   46.067304193 32.346358250 22.542368514    -.000007261 .000005700 .000001518    303
 1   46.067480637 34.306796023 20.582320348    .000005916 .000012579 -.000005538    304
 1   44.106631701 32.345986070 24.502274675    -.000016373 -.000000440 .000009038    305
 1   44.106241800 34.305918019 26.461972492    -.000013800 -.000002900 .000010390    306
 1   46.066762271 32.345741226 26.462195529    -.000014955 -.000001373 .000010524    307
 1   46.066958639 34.306289456 24.502075311    -.000003460 .000004737 .000001864    308
 1   44.106104134 32.345400498 28.422152878    -.000020180 -.000005021 .000015874    309
 1   44.105572601 34.305335732 30.381892552    -.000017641 -.000004928 .000015918    310
 1   46.066106597 32.345082415 30.382138718    -.000018930 -.000005910 .000017817    311
 1   46.066230314 34.305646639 28.421872962    -.000012872 -.000003921 .000011244    312
 1   44.105531987 32.344841637 32.342240938    -.000019071 -.000004188 .000017885    313
 1   44.104919062 34.304800886 34.302095086    -.000016538 -.000002295 .000016049    314
 1   46.065457123 32.344507540 34.302332248    -.000017478 -.000003909 .000018824    315
 1   46.065431497 34.304975975 32.341861754    -.000016927 -.000005178 .000017073    316
 1   44.105019117 32.344411730 36.262623180    -.000014691 -.000001292 .000014314    317
 1   44.104391653 34.304416332 38.222641117    -.000012867 .000000534 .000011269    318
 1   46.064919554 32.344121244 38.222854786    -.000013086 -.000000669 .000013124    319
 1   46.064708521 34.304412452 36.262181013    -.000015044 -.000001522 .000015816    320
 1   44.103821127 36.264514038 40.182785723    -.000011753 .000002069 .000008719    321
 1   44.103378616 38.224732667 42.143067996    -.000010937 .000003670 .000007600    322
 1   46.063477846 36.264080769 42.143033730    -.000010158 .000003235 .000007414    323
 1   46.063292803 38.224436112 40.182240318    -.000011672 .000002487 .000011602    324
 1   44.103549765 36.264402731 44.103801307    -.000009871 .000003758 .000003081    325
 1   44.103228530 38.224713596 46.064218435    -.000008836 .000006225 .000003520    326
 1   46.063236392 36.264029088 46.064211146    -.000008598 .000004325 .000001895    327
 1   46.062934058 38.224226855 44.103329582    -.000009028 .000005134 .000007053    328
 1   44.103437003 36.264462838 48.024958086    -.000009080 .000004794 -.000001058    329
 1   44.103208844 38.224848150 49.985440868    -.000006272 .000007135 .000000293    330
 1   46.063165366 36.264146467 49.985492138    -.000008108 .000003401 -.000002410    331
 1   46.062813743 38.224262479 48.024646002    -.000007643 .000005799 .000002599    332
 1   44.103415965 36.264619297 51.946121628    -.000007158 .000004785 -.000003399    333
 1   44.103241192 38.225046417 53.906613207    -.000001816 .000005720 -.000002418    334
 1   46.063194718 36.264345593 53.906734539    -.000005075 .000002502 -.000003984    335
 1   46.062823613 38.224441797 51.945991974    -.000004653 .000003950 -.000000944    336
 1   44.103447680 36.264811215 55.867219425    -.000002833 .000004866 -.000003863    337
 1   44.103293373 38.225245017 57.827690096    .000000924 .000003359 -.000003932    338